FoamFile { version 2.0; format ascii; class volScalarField; object k; }
dimensions      [0 2 -2 0 0 0 0];
internalField   uniform 0.240000;
boundaryField
{
    inlet       { type fixedValue; value uniform 0.240000; }
    outlet      { type inletOutlet; inletValue uniform 0.240000; value uniform 0.240000; }
    ground      { type fixedValue; value uniform 0; }
    top         { type zeroGradient; }
    side_y_neg  { type symmetry; }
    side_y_pos  { type zeroGradient; }
    ahmed_body  { type fixedValue; value uniform 0; }
}
