FoamFile { version 2.0; format ascii; class volScalarField; object nut; }
dimensions      [0 2 -1 0 0 0 0];
internalField   uniform 0;
boundaryField
{
    inlet       { type calculated; value uniform 0; }
    outlet      { type calculated; value uniform 0; }
    ground      { type nutLowReWallFunction; value uniform 0; }
    top         { type slip; }
    side_y_neg  { type symmetry; }
    side_y_pos  { type slip; }
    ahmed_body  { type nutLowReWallFunction; value uniform 0; }
}
